/*--------------------------------*- C++ -*----------------------------------*\
| =========                 |                                                 |
| \\      /  F ield         | OpenFOAM: The Open Source CFD Toolbox           |
|  \\    /   O peration     | Version:  2.3.0                                 |
|   \\  /    A nd           | Web:      www.OpenFOAM.org                      |
|    \\/     M anipulation  |                                                 |
\*---------------------------------------------------------------------------*/
FoamFile
{
    version     2.0;
    format      ascii;
    class       volVectorField;
    location    "0";
    object      U;
}
// * * * * * * * * * * * * * * * * * * * * * * * * * * * * * * * * * * * * * //

dimensions      [0 1 -1 0 0 0 0];

internalField   uniform (0 0 0);

boundaryField
{
    symm
    {
        type            symmetryPlane;
    }
    inletTop
    {
        type            surfaceNormalFixedValue;
        refValue        uniform -0.0119048;
    }
    outletTop
    {
        type            zeroGradient;
    }
    outletBottom
    {
        type            zeroGradient;
    }
    inletBottom
    {
        type            surfaceNormalFixedValue;
        refValue        uniform -0.0119048;
    }
    tempWall
    {
        type            fixedValue;
        value           uniform (0 0 0);
    }
    inletWall
    {
        type            fixedValue;
        value           uniform (0 0 0);
    }
    chamberWall
    {
        type            fixedValue;
        value           uniform (0 0 0);
    }
    Membrane
    {
        type            explicitFOmembraneVelocity;
        A               1.61111e-12;
        B               8.33333e-08;
        K               150666;
        alpha           1;
        eq              advanced;
        aRelax          1;
        forwardDirection (0 0 1);
        slip            noSlip;
        pi_mACoeff      8.051e+07;
        value           uniform (0 0 0);
    }
}


// ************************************************************************* //
